#     Step Nr.          Time[fs]        Kin.[a.u.]          Temp[K]            Pot.[a.u.]        Cons Qty[a.u.]        UsedTime[s]
         0            0.000000         0.340828501       250.000000000     -1656.006724864     -1655.665896362         0.000000000
         1            1.000000         0.362626113       265.988695192     -1656.030340927     -1655.667268715        15.865139322
         2            2.000000         0.392075006       287.589655876     -1656.060827925     -1655.668730924         3.589016989
         3            3.000000         0.405741190       297.613894121     -1656.073541694     -1655.669166544         3.243164705
         4            4.000000         0.390414288       286.371507996     -1656.059046109     -1655.668343871         3.279978209
         5            5.000000         0.360839791       264.678415788     -1656.027604830     -1655.666883564         3.289882711
         6            6.000000         0.334950201       245.688227126     -1655.999853502     -1655.665693730         3.271799825
         7            7.000000         0.330587513       242.488166347     -1655.993478441     -1655.665364588         3.280806757
         8            8.000000         0.353249957       259.111221384     -1656.013289095     -1655.665982958         3.313578134
         9            9.000000         0.387717598       284.393467728     -1656.049686971     -1655.667218714         3.315372683
        10           10.000000         0.421047754       308.841362183     -1656.084353166     -1655.668424101         2.906432711
        11           11.000000         0.437285788       320.752068985     -1656.100553291     -1655.668914053         2.899685380
        12           12.000000         0.433259585       317.798822272     -1656.093021928     -1655.668399337         2.888101058
        13           13.000000         0.415138711       304.507039147     -1656.071719905     -1655.667255744         3.276409139
        14           14.000000         0.397471342       291.547904928     -1656.055132321     -1655.666547622         3.293570028
        15           15.000000         0.395116142       289.820349912     -1656.054856127     -1655.666807170         3.308903956
        16           16.000000         0.409191713       300.144876048     -1656.067211419     -1655.667629242         3.295253955
        17           17.000000         0.416003426       305.141313007     -1656.078366582     -1655.668448455         2.911229985
        18           18.000000         0.410717050       301.263721064     -1656.074275601     -1655.668503496         2.906683121
        19           19.000000         0.390227021       286.234146745     -1656.052231720     -1655.667641306         3.291949021
        20           20.000000         0.361361689       265.061231228     -1656.023199782     -1655.666549703         3.335963216
        21           21.000000         0.340771920       249.958497109     -1656.002580373     -1655.665928010         3.292983654
        22           22.000000         0.337504926       247.562135293     -1655.999596090     -1655.665990243         3.298361381
        23           23.000000         0.348542478       255.658253458     -1656.013643641     -1655.666553694         3.272099299
        24           24.000000         0.373935172       274.283965949     -1656.036619868     -1655.667380874         3.320924403
        25           25.000000         0.392177713       287.664992534     -1656.056692978     -1655.668205647         2.913422908
        26           26.000000         0.394072252       289.054649490     -1656.063478377     -1655.668463722         2.943167123
        27           27.000000         0.386525491       283.519049827     -1656.055560848     -1655.667955985         3.285346407
        28           28.000000         0.371899401       272.790714024     -1656.042608698     -1655.667373127         3.278614265
        29           29.000000         0.362228632       265.697139657     -1656.035171148     -1655.667129899         3.290427074
        30           30.000000         0.367802881       269.785888805     -1656.037798730     -1655.667182865         3.274996712
        31           31.000000         0.379239454       278.174692526     -1656.048728218     -1655.667561345         3.320759988
        32           32.000000         0.384846076       282.287187584     -1656.060215056     -1655.668094798         3.281827333
        33           33.000000         0.385571594       282.819359585     -1656.062892559     -1655.668189318         3.315333328
        34           34.000000         0.376636438       276.265362769     -1656.054056884     -1655.667639366         3.278443698
        35           35.000000         0.365382934       268.010841442     -1656.040335228     -1655.666862803         3.277389267
        36           36.000000         0.356024787       261.146578115     -1656.032563571     -1655.666399378         3.303244950
        37           37.000000         0.364271928       267.195911436     -1656.037402076     -1655.666562420         3.307943104
        38           38.000000         0.376546146       276.199132506     -1656.052648567     -1655.667215553         3.276438405
        39           39.000000         0.390273472       286.268219180     -1656.069599979     -1655.667797334         2.899340949
        40           40.000000         0.401654631       294.616375848     -1656.080839279     -1655.667982732         2.900710344
        41           41.000000         0.405511223       297.445211500     -1656.084867892     -1655.667948971         3.357343201
        42           42.000000         0.402221739       295.032353182     -1656.083276244     -1655.668010315         3.338093017
        43           43.000000         0.394581518       289.428199929     -1656.076156923     -1655.668203642         3.289174664
        44           44.000000         0.381017357       279.478796084     -1656.062478521     -1655.667820392         3.291131364
        45           45.000000         0.368354164       270.190258929     -1656.048408874     -1655.666969656         3.295228907
        46           46.000000         0.364529675       267.384970411     -1656.045083007     -1655.666940183         3.274502946
        47           47.000000         0.371359404       272.394622564     -1656.052128908     -1655.667686050         2.904439240
        48           48.000000         0.378643748       277.737738041     -1656.057756916     -1655.668047231         2.942128092
        49           49.000000         0.377648064       277.007397243     -1656.054586969     -1655.667677742         3.297409917
        50           50.000000         0.369718061       271.190686607     -1656.046041758     -1655.667131547         3.293549869
        51           51.000000         0.363276817       266.465990324     -1656.039377337     -1655.666848330         3.279785500
        52           52.000000         0.363512281       266.638705344     -1656.039057177     -1655.666801822         3.318689400
        53           53.000000         0.369699079       271.176763172     -1656.046270191     -1655.666930907         3.331644308
        54           54.000000         0.382325286       280.438170610     -1656.059594354     -1655.667275404         2.898067709
        55           55.000000         0.395594421       290.171170863     -1656.074761020     -1655.667716789         3.304410604
        56           56.000000         0.405698830       297.582822423     -1656.086093350     -1655.668183619         3.304845257
        57           57.000000         0.406886277       298.453823296     -1656.087782714     -1655.668505205         3.307765214
        58           58.000000         0.397367441       291.471693144     -1656.076988359     -1655.668109177         3.378309052
        59           59.000000         0.382726610       280.732544767     -1656.060880208     -1655.667192942         3.321726731
        60           60.000000         0.376412972       276.101448720     -1656.053005545     -1655.666774254         3.299111959
        61           61.000000         0.383424316       281.244316773     -1656.059134931     -1655.667190063         3.306755899
        62           62.000000         0.397527845       291.589350454     -1656.072052235     -1655.667861455         3.298834908
        63           63.000000         0.407202380       298.685686452     -1656.079884579     -1655.668112528         2.915655817
        64           64.000000         0.404045306       296.369951796     -1656.076768213     -1655.667797370         3.329726372
        65           65.000000         0.397818692       291.802688317     -1656.065795839     -1655.667223490         3.305325828
        66           66.000000         0.387500193       284.234000356     -1656.054871256     -1655.666748489         3.308070338
        67           67.000000         0.383116616       281.018616943     -1656.051323202     -1655.666617586         3.312039074
        68           68.000000         0.391075485       286.856500958     -1656.057582951     -1655.666916461         2.931010955
        69           69.000000         0.398588808       292.367574084     -1656.069691291     -1655.667556385         3.357732196
        70           70.000000         0.406158201       297.919774171     -1656.078945447     -1655.668237235         3.313971057
        71           71.000000         0.403456559       295.938102083     -1656.076488419     -1655.668440265         3.330606629
        72           72.000000         0.386998194       283.865780467     -1656.061077464     -1655.667778967         3.305576839
        73           73.000000         0.367908984       269.863716110     -1656.043579631     -1655.666941708         3.294432792
        74           74.000000         0.360531250       264.452098839     -1656.036700822     -1655.666931347         3.357892343
        75           75.000000         0.364020180       267.011252769     -1656.041015663     -1655.667475264         3.365509943
        76           76.000000         0.372094180       272.933585845     -1656.047948382     -1655.667851996         3.301777408
        77           77.000000         0.375891594       275.719014279     -1656.050282904     -1655.667868611         3.309082538
        78           78.000000         0.372635087       273.330344901     -1656.046041660     -1655.667640075         3.320606865
        79           79.000000         0.366862516       269.096125357     -1656.037728805     -1655.667200621         3.323384688
        80           80.000000         0.362272555       265.729357486     -1656.031336626     -1655.666748383         3.345859723
        81           81.000000         0.365014276       267.740428253     -1656.032976148     -1655.666695794         3.338835009
        82           82.000000         0.374576515       274.754395023     -1656.043305345     -1655.667129234         2.937779688
        83           83.000000         0.390699686       286.580849896     -1656.056273472     -1655.667681595         2.939112873
        84           84.000000         0.397260593       291.393318901     -1656.064107703     -1655.668001385         3.302075108
        85           85.000000         0.397029513       291.223820080     -1656.062754317     -1655.667951635         3.031851348
        86           86.000000         0.390045162       286.100751548     -1656.054317548     -1655.667434113         3.325914808
        87           87.000000         0.382104354       280.276115744     -1656.047571495     -1655.666919556         3.342746506
        88           88.000000         0.385891004       283.053649009     -1656.050534929     -1655.667131765         3.314985862
        89           89.000000         0.395635877       290.201578899     -1656.060370034     -1655.667807567         3.364304572
        90           90.000000         0.397342384       291.453313025     -1656.066899116     -1655.668121595         3.327465790
        91           91.000000         0.398124412       292.026936319     -1656.064437904     -1655.667842018         3.352715151
        92           92.000000         0.389179446       285.465743295     -1656.055679605     -1655.667344273         3.354762054
        93           93.000000         0.381437686       279.787110366     -1656.047214106     -1655.666940617         3.337296881
        94           94.000000         0.381781923       280.039610357     -1656.044401948     -1655.666794325         2.978960752
        95           95.000000         0.388604505       285.044020465     -1656.048559913     -1655.667000013         3.346758996
        96           96.000000         0.395168735       289.858926953     -1656.055972841     -1655.667429832         3.343379990
        97           97.000000         0.402574764       295.291299628     -1656.060108613     -1655.667748720         2.978257805
        98           98.000000         0.398265566       292.130473659     -1656.056622752     -1655.667677097         2.957737217
        99           99.000000         0.391730748       287.337140436     -1656.047565359     -1655.667226448         3.344878211
       100          100.000000         0.386201535       283.281425822     -1656.040544778     -1655.666864200         3.324664151
       101          101.000000         0.385662940       282.886362665     -1656.041523897     -1655.666953725         3.365539599
       102          102.000000         0.391848757       287.423700805     -1656.049731330     -1655.667391974         3.364546216
       103          103.000000         0.398330400       292.178029957     -1656.058735011     -1655.667897231         2.942665762
       104          104.000000         0.401037066       294.163387616     -1656.060898736     -1655.667940510         2.966789366
       105          105.000000         0.395860215       290.366132110     -1656.054789173     -1655.667532899         3.363153356
       106          106.000000         0.387799841       284.453793660     -1656.045652016     -1655.667085865         3.367517550
       107          107.000000         0.381961677       280.171461532     -1656.039927349     -1655.666832523         3.357617647
       108          108.000000         0.381178049       279.596664605     -1656.041070767     -1655.666904050         2.951244283
       109          109.000000         0.387488422       284.225365899     -1656.047611536     -1655.667188967         3.366205846
       110          110.000000         0.393728596       288.802575509     -1656.054999365     -1655.667453232         2.935170888
       111          111.000000         0.400205540       293.553457510     -1656.059214599     -1655.667541537         2.946426530
       112          112.000000         0.402163099       294.989340069     -1656.058972962     -1655.667488753         2.979288080
       113          113.000000         0.397453115       291.534535295     -1656.055380678     -1655.667466435         3.366012826
       114          114.000000         0.393108199       288.347510465     -1656.050021711     -1655.667320534         2.964523193
       115          115.000000         0.392844092       288.153785979     -1656.046144712     -1655.666983783         3.369785847
       116          116.000000         0.393702081       288.783126781     -1656.048849858     -1655.667028942         3.332887942
       117          117.000000         0.401370187       294.407734172     -1656.057633814     -1655.667491851         3.364430524
       118          118.000000         0.408447121       299.598712781     -1656.065879606     -1655.667757486         3.352839379
       119          119.000000         0.409810300       300.598613400     -1656.069071892     -1655.667737526         3.345597289
       120          120.000000         0.409413364       300.307458521     -1656.066743122     -1655.667508155         2.986463742
       121          121.000000         0.403280587       295.809025515     -1656.061699741     -1655.667196181         2.973936804
       122          122.000000         0.401189698       294.275344368     -1656.058001789     -1655.667021650         2.965569398
       123          123.000000         0.397492195       291.563200411     -1656.057895271     -1655.667000327         2.968449247
       124          124.000000         0.400033250       293.427081527     -1656.061669597     -1655.666993391         3.078996623
       125          125.000000         0.406378627       298.081458685     -1656.069278756     -1655.667046092         3.361094350
       126          126.000000         0.412795202       302.788059281     -1656.079604980     -1655.667384385         2.960876414
       127          127.000000         0.421277642       309.009986461     -1656.087809908     -1655.667815170         2.974803675
       128          128.000000         0.420996434       308.803718380     -1656.088279655     -1655.667820436         2.962533830
       129          129.000000         0.415115702       304.490161411     -1656.081712786     -1655.667436120         3.404113918
       130          130.000000         0.405271735       297.269545382     -1656.074471340     -1655.667091497         3.346839941
       131          131.000000         0.407093959       298.606158974     -1656.072338447     -1655.667020295         3.359315671
       132          132.000000         0.410042748       300.769116210     -1656.076480676     -1655.667321974         3.363077501
       133          133.000000         0.413297971       303.156844045     -1656.082444407     -1655.667679624         3.357561990
       134          134.000000         0.416208466       305.291711428     -1656.084688385     -1655.667738490         2.996535064
       135          135.000000         0.414076290       303.727745785     -1656.081505255     -1655.667605342         3.070551759
       136          136.000000         0.406196891       297.948153643     -1656.074282599     -1655.667447533         2.971607660
       137          137.000000         0.398004312       291.938842226     -1656.065343238     -1655.667189418         2.964048563
       138          138.000000         0.390036441       286.094354947     -1656.058711307     -1655.666855308         3.351035412
       139          139.000000         0.390396787       286.358671010     -1656.059091162     -1655.666793514         3.345059859
       140          140.000000         0.396095503       290.538717881     -1656.067180322     -1655.667214476         3.007033394
       141          141.000000         0.408449147       299.600198840     -1656.077000247     -1655.667733268         2.972570345
       142          142.000000         0.413433844       303.256507287     -1656.081007019     -1655.667873392         2.975296390
       143          143.000000         0.407557516       298.946181369     -1656.077205127     -1655.667692710         2.979760245
       144          144.000000         0.398427089       292.248951889     -1656.068947832     -1655.667366012         2.968567864
       145          145.000000         0.394144608       289.107722881     -1656.061984931     -1655.667052083         3.392760238
       146          146.000000         0.394199088       289.147684864     -1656.061089290     -1655.667010498         3.402370897
       147          147.000000         0.400110742       293.483922245     -1656.066728769     -1655.667272224         3.351684195
       148          148.000000         0.405217173       297.229524094     -1656.074780560     -1655.667651782         2.980353933
       149          149.000000         0.410883127       301.385539304     -1656.079135358     -1655.667907764         2.996418010
       150          150.000000         0.407146871       298.644970316     -1656.075649258     -1655.667799037         2.996291678
       151          151.000000         0.399206858       292.820917745     -1656.065529976     -1655.667322311         2.989544316
       152          152.000000         0.385972623       283.113516782     -1656.055673193     -1655.666810601         3.420864841
       153          153.000000         0.386743080       283.678652395     -1656.053644964     -1655.666726544         3.379712021
       154          154.000000         0.392666605       288.023597666     -1656.060498604     -1655.667139137         2.981152443
       155          155.000000         0.399678861       293.167134750     -1656.070003157     -1655.667614332         3.068508854
       156          156.000000         0.402524381       295.254342946     -1656.075289484     -1655.667802609         2.973298891
       157          157.000000         0.398480397       292.288053229     -1656.074006131     -1655.667737416         3.003923164
       158          158.000000         0.391463189       287.140884111     -1656.067854319     -1655.667526063         2.976870406
       159          159.000000         0.386125102       283.225361754     -1656.060837617     -1655.667248246         2.975216036
       160          160.000000         0.380723756       279.263437912     -1656.057611477     -1655.667146274         3.358084772
       161          161.000000         0.382447336       280.527695350     -1656.060007335     -1655.667305309         3.370648791
       162          162.000000         0.386512828       283.509760822     -1656.065691377     -1655.667575374         2.981862664
       163          163.000000         0.388797033       285.185240603     -1656.070293336     -1655.667797239         2.997759541
       164          164.000000         0.388305983       284.825052307     -1656.070154749     -1655.667775258         2.982330340
       165          165.000000         0.387323219       284.104188154     -1656.065203930     -1655.667469906         2.991788367
       166          166.000000         0.382195661       280.343090410     -1656.059826524     -1655.667101868         2.988822794
       167          167.000000         0.381019057       279.480042915     -1656.059320832     -1655.666985097         3.384083359
       168          168.000000         0.384578033       282.090576062     -1656.065620485     -1655.667190710         3.435105364
       169          169.000000         0.394293096       289.216640450     -1656.075972862     -1655.667540601         2.995868897
       170          170.000000         0.404681952       296.836936215     -1656.084993327     -1655.667840383         3.000558315
       171          171.000000         0.407787816       299.115108078     -1656.088074044     -1655.667921461         2.970262643
       172          172.000000         0.408210296       299.424999847     -1656.084186369     -1655.667671692         2.998360603
       173          173.000000         0.396974877       291.183744656     -1656.077475653     -1655.667229414         2.980682672
       174          174.000000         0.394055667       289.042483967     -1656.074903141     -1655.667014464         3.377605464
       175          175.000000         0.397609969       291.649588843     -1656.079572837     -1655.667262661         2.973888151
       176          176.000000         0.401877396       294.779775530     -1656.087424170     -1655.667759100         2.986682812
       177          177.000000         0.403982721       296.324045411     -1656.091150116     -1655.667971251         2.975128538
       178          178.000000         0.398023791       291.953129724     -1656.087775456     -1655.667680123         2.997837630
       179          179.000000         0.391447876       287.129652381     -1656.081432318     -1655.667368934         2.984539414
       180          180.000000         0.386117237       283.219592118     -1656.076861411     -1655.667366471         2.994224466
       181          181.000000         0.387578583       284.291499467     -1656.074787281     -1655.667396553         3.369604540
       182          182.000000         0.388981944       285.320874139     -1656.075040129     -1655.667314491         3.357185949
       183          183.000000         0.387596042       284.304306138     -1656.078678280     -1655.667388604         3.354532073
       184          184.000000         0.393138009       288.369375675     -1656.084630281     -1655.667783785         2.998331577
       185          185.000000         0.396461126       290.806904839     -1656.087525075     -1655.668105249         3.016137232
       186          186.000000         0.392982502       288.255310790     -1656.083329595     -1655.667881328         2.998924834
       187          187.000000         0.385932254       283.083906291     -1656.075293644     -1655.667374794         2.971666333
       188          188.000000         0.380800355       279.319623644     -1656.070827078     -1655.667125528         3.370196374
       189          189.000000         0.380323608       278.969926603     -1656.073647743     -1655.667364312         3.012166692
       190          190.000000         0.384703285       282.182449094     -1656.080289096     -1655.667812399         2.977383811
       191          191.000000         0.389657168       285.816155475     -1656.084224495     -1655.667885795         3.017097442
       192          192.000000         0.390319882       286.302261201     -1656.083940558     -1655.667468537         3.416689449
       193          193.000000         0.389237629       285.508420678     -1656.084805481     -1655.667234931         3.003111498
       194          194.000000         0.396247393       290.650130031     -1656.090112376     -1655.667561666         3.041082130
       195          195.000000         0.403220210       295.764738266     -1656.095494065     -1655.667889418         2.971356489
       196          196.000000         0.404081314       296.396363525     -1656.096383362     -1655.667677557         3.401959469
       197          197.000000         0.402333196       295.114107253     -1656.095936683     -1655.667294481         3.009236336
       198          198.000000         0.407800075       299.124099928     -1656.099407781     -1655.667457056         3.431597621
       199          199.000000         0.411653487       301.950603625     -1656.104685888     -1655.667954863         2.981191037
       200          200.000000         0.410225458       300.903134935     -1656.104963658     -1655.668063822         2.976057979
       201          201.000000         0.402354469       295.129711430     -1656.098544949     -1655.667749063         2.990018525
       202          202.000000         0.395252238       289.920177259     -1656.090033331     -1655.667322143         3.002860197
       203          203.000000         0.391995451       287.531302325     -1656.085678409     -1655.667147073         3.027877082
       204          204.000000         0.393242684       288.446155783     -1656.087779315     -1655.667553000         3.166697414
       205          205.000000         0.394787414       289.579225804     -1656.090768462     -1655.667978304         2.992042434
       206          206.000000         0.393752029       288.819763723     -1656.088853868     -1655.667758233         2.999862631
       207          207.000000         0.390863439       286.700963877     -1656.084808320     -1655.667329527         2.998036902
       208          208.000000         0.390003450       286.070155546     -1656.084445772     -1655.667409054         3.042331825
       209          209.000000         0.392928323       288.215569711     -1656.087007295     -1655.667819142         3.013671526
       210          210.000000         0.393732842       288.805689861     -1656.087248417     -1655.667839307         3.004028846
       211          211.000000         0.390052758       286.106323647     -1656.084957283     -1655.667459892         3.382055412
       212          212.000000         0.392042649       287.565922165     -1656.085398867     -1655.667344125         3.387435714
       213          213.000000         0.394359065       289.265028854     -1656.090296324     -1655.667635637         2.987942476
       214          214.000000         0.402000983       294.870427186     -1656.095377994     -1655.667840063         2.979521187
       215          215.000000         0.405409849       297.370852923     -1656.097011213     -1655.667759386         2.981717626
       216          216.000000         0.406649907       298.280444407     -1656.095678447     -1655.667524312         2.964341404
       217          217.000000         0.403742249       296.147657439     -1656.094675207     -1655.667271782         2.978722395
       218          218.000000         0.405256108       297.258082914     -1656.097709631     -1655.667279458         2.974949185
       219          219.000000         0.410571483       301.156946251     -1656.104742253     -1655.667579008         2.967987321
       220          220.000000         0.417171406       305.998034647     -1656.111451730     -1655.667836997         2.967932477
       221          221.000000         0.419425084       307.651122246     -1656.113663143     -1655.667870454         2.968830408
       222          222.000000         0.414112628       303.754400339     -1656.110892381     -1655.667724580         2.982199630
       223          223.000000         0.409577485       300.427842134     -1656.105793999     -1655.667584873         2.992261724
       224          224.000000         0.404139473       296.439024213     -1656.100873018     -1655.667532216         2.965070261
       225          225.000000         0.400162078       293.521577915     -1656.097302269     -1655.667555755         3.009192232
       226          226.000000         0.397377974       291.479418588     -1656.094821871     -1655.667654630         2.991057716
       227          227.000000         0.394464959       289.342702726     -1656.091762703     -1655.667792286         2.992247297